 Q-Chem 5.4 (devel), Q-Chem, Inc., Pleasanton, CA (2021)
 Q-Chem 5.4.0 for Intel X86 EM64T Linux

User input:
--------------------------------------------------------------
$molecule
0 1
 C        0.000000    0.000000   -0.49687143
 H        0.000000    0.000000   -1.56687143
 N        0.000000    0.000000    0.64972857
$end

$rem
JOBTYPE=SP
input_bohr = false
method = pbe
basis = cc-pvdz
sym_ignore = 1
scf_convergence 11
max_scf_cycles 100
SCF_ALGORITHM diis
xc_grid = 000100000302
$end
--------------------------------------------------------------

             Standard Nuclear Orientation (Angstroms)
    I     Atom           X                Y                Z
 ----------------------------------------------------------------
    1      C       0.0000000000     0.0000000000    -0.4968714300
    2      H       0.0000000000     0.0000000000    -1.5668714300
    3      N       0.0000000000     0.0000000000     0.6497285700
 ----------------------------------------------------------------

   12     -93.3142520729      1.61e-12  Convergence criterion met
 Total energy in the final basis set =      -93.3142520729

                    Orbital Energies (a.u.)
 --------------------------------------------------------------

 Alpha MOs
 -- Occupied --
-14.0142  -9.9471  -0.8421  -0.5461  -0.3233  -0.3230  -0.3230

          Ground-State Mulliken Net Atomic Charges

     Atom                 Charge (a.u.)
  ----------------------------------------
      1 C                    -0.002264
      2 H                     0.082030
      3 N                    -0.079765
  ----------------------------------------
  Sum of atomic charges =     0.000000

                    Cartesian Multipole Moments
 -----------------------------------------------------------------
    Charge (ESU x 10^10)
                -0.0000
    Dipole Moment (Debye)
         X      -0.0000      Y      -0.0000      Z      -2.6901
       Tot       2.6901
    Quadrupole Moments (Debye-Ang)
        XX     -11.3910     XY      -0.0000     YY     -11.3910
        XZ       0.0000     YZ       0.0000     ZZ      -9.6231

 Total job time:  5.50s(wall), 3.86s(cpu)
        *  Thank you very much for using Q-Chem.  Have a nice day.  *
