 Q-Chem 5.4 (devel), Q-Chem, Inc., Pleasanton, CA (2021)
 Q-Chem 5.4.0 for Intel X86 EM64T Linux

User input:
--------------------------------------------------------------
$molecule
0 1
 C        0.000000    0.000000   -0.49687143
 H        0.000000    0.000000   -1.56687143
 N        0.000000    0.000000    0.64972857
$end

$rem
JOBTYPE=SP
input_bohr = false
method = pbe
basis = 3-21g
neo = true
neo_epc = epc19
sym_ignore = 1
scf_convergence 11
max_scf_cycles 100
SCF_ALGORITHM diis
xc_grid = 000100000302
$end

$neo_basis
H    2
 S   1   1.00
     31.997      1.000000
 S   1   1.00
     16.010      1.000000
 S   1   1.00
     8.734      1.000000
 S   1   1.00
     1.957       1.000000
 P   1   1.00
     24.028      1.000000
 P   1   1.00
     13.795      1.000000
 P   1   1.00
     9.438       1.000000
 D   1   1.00
     19.016      1.000000
 D   1   1.00
     10.524       1.000000
****
$end
--------------------------------------------------------------

             Standard Nuclear Orientation (Angstroms)
    I     Atom           X                Y                Z
 ----------------------------------------------------------------
    1      C       0.0000000000     0.0000000000    -0.4968714300
    2      H       0.0000000000     0.0000000000    -1.5668714300
    3      N       0.0000000000     0.0000000000     0.6497285700
 ----------------------------------------------------------------

   12     -92.7913550554      2.24e-12  Convergence criterion met
 Total energy in the final basis set =      -92.7913550554
    3      18.4467492340      1.33e-14  Convergence criterion met
   11     -92.7534634344      9.55e-13  Convergence criterion met
   24     -92.7813234030      8.49e-08  Convergence criterion met
   10     -92.7815591952      6.03e-12  Convergence criterion met
   14     -92.7815895266      6.58e-09  Convergence criterion met
   10     -92.7815951856      1.42e-12  Convergence criterion met
   11     -92.7815964461      9.96e-08  Convergence criterion met
   10     -92.7815967414      2.89e-13  Convergence criterion met
   11     -92.7815968111      2.29e-08  Convergence criterion met
    9     -92.7815968277      4.48e-12  Convergence criterion met
    9     -92.7815968316      2.46e-08  Convergence criterion met
    9     -92.7815968326      1.08e-12  Convergence criterion met

 Nuclear Orbital Energies (a.u.)
 ---------------------------------------
  -- Occupied --
   -0.8833

 Total job time:  43.78s(wall), 43.25s(cpu)
        *  Thank you very much for using Q-Chem.  Have a nice day.  *
