 Q-Chem 5.4 (devel), Q-Chem, Inc., Pleasanton, CA (2021)
 Q-Chem 5.4.0 for Intel X86 EM64T Linux

User input:
--------------------------------------------------------------
$molecule
0 1
 C        0.000000    0.000000   -0.49687143
 H        0.000000    0.000000   -1.56687143
 N        0.000000    0.000000    0.64972857
$end

$rem
JOBTYPE=SP
input_bohr = false
method = B3LYP
basis = 3-21g
neo = true
neo_epc = epc19
sym_ignore = 1
scf_convergence 11
max_scf_cycles 100
SCF_ALGORITHM diis
xc_grid = 000100000302
$end

$neo_basis
H    2
 S   1   1.00
     4.000000      1.000000
 P   1   1.00
     4.000000      1.000000
****
$end
--------------------------------------------------------------

             Standard Nuclear Orientation (Angstroms)
    I     Atom           X                Y                Z
 ----------------------------------------------------------------
    1      C       0.0000000000     0.0000000000    -0.4968714300
    2      H       0.0000000000     0.0000000000    -1.5668714300
    3      N       0.0000000000     0.0000000000     0.6497285700
 ----------------------------------------------------------------

   12     -92.9071141789      8.03e-13  Convergence criterion met
 Total energy in the final basis set =      -92.9071141789
    3      18.5088628665      3.01e-16  Convergence criterion met
   11     -92.8266269708      2.83e-12  Convergence criterion met
    8     -92.8796241732      7.86e-09  Convergence criterion met
   10     -92.8824018577      7.43e-12  Convergence criterion met
    5     -92.8824127582      8.17e-09  Convergence criterion met
   10     -92.8824149742      5.90e-12  Convergence criterion met
    4     -92.8824154311      9.93e-08  Convergence criterion met
    9     -92.8824155255      7.06e-12  Convergence criterion met
    4     -92.8824155450      4.21e-09  Convergence criterion met
    9     -92.8824155490      1.46e-12  Convergence criterion met

 Nuclear Orbital Energies (a.u.)
 ---------------------------------------
  -- Occupied --
   -0.8421

 Total job time:  22.98s(wall), 22.02s(cpu)
        *  Thank you very much for using Q-Chem.  Have a nice day.  *
