 Q-Chem 5.4 (devel), Q-Chem, Inc., Pleasanton, CA (2021)
 Q-Chem 5.4.0 for Intel X86 EM64T Linux

User input:
--------------------------------------------------------------
$molecule
0 1
 C        0.000000    0.000000   -0.49687143
 H        0.000000    0.000000   -1.56687143
 N        0.000000    0.000000    0.64972857
$end

$rem
JOBTYPE=SP
input_bohr = false
method = B3LYP
basis = cc-pvdz
neo = true
neo_epc = epc19
sym_ignore = 1
scf_convergence 11
max_scf_cycles 100
SCF_ALGORITHM diis
xc_grid = 000100000302
$end

$neo_basis
H    2
S   1   1.00
    28.950      1.000000
S   1   1.00
    17.943      1.000000
S   1   1.00
    10.645      1.000000
S   1   1.00
    5.973       1.000000
P   1   1.00
    23.308      1.000000
P   1   1.00
    14.701      1.000000
P   1   1.00
    7.604       1.000000
D   1   1.00
    19.787      1.000000
D   1   1.00
    9.011       1.000000
F   1   1.00
    20.985      1.000000
F   1   1.00
    10.914      1.000000
****
$end
--------------------------------------------------------------

             Standard Nuclear Orientation (Angstroms)
    I     Atom           X                Y                Z
 ----------------------------------------------------------------
    1      C       0.0000000000     0.0000000000    -0.4968714300
    2      H       0.0000000000     0.0000000000    -1.5668714300
    3      N       0.0000000000     0.0000000000     0.6497285700
 ----------------------------------------------------------------

   12     -93.4298417323      1.18e-12  Convergence criterion met
 Total energy in the final basis set =      -93.4298417323
    3      18.4580726172      3.03e-13  Convergence criterion met
   11     -93.3905817295      2.94e-12  Convergence criterion met
   35     -93.4185592378      9.92e-08  Convergence criterion met
   11     -93.4188721455      3.25e-12  Convergence criterion met
   15     -93.4189098758      7.09e-08  Convergence criterion met
   11     -93.4189216944      2.83e-13  Convergence criterion met
   14     -93.4189268736      5.02e-08  Convergence criterion met
   10     -93.4189292442      6.60e-12  Convergence criterion met
   13     -93.4189303396      8.39e-08  Convergence criterion met
   10     -93.4189308447      2.91e-12  Convergence criterion met
   11     -93.4189310785      9.40e-08  Convergence criterion met
   10     -93.4189311865      1.33e-12  Convergence criterion met
   10     -93.4189312364      9.32e-08  Convergence criterion met
   10     -93.4189312591      6.06e-13  Convergence criterion met
    9     -93.4189312700      4.62e-08  Convergence criterion met
    9     -93.4189312751      4.98e-12  Convergence criterion met

 Nuclear Orbital Energies (a.u.)
 ---------------------------------------
  -- Occupied --
   -0.8693

 Total job time:  160.87s(wall), 160.59s(cpu)
        *  Thank you very much for using Q-Chem.  Have a nice day.  *
