 Q-Chem 5.4 (devel), Q-Chem, Inc., Pleasanton, CA (2021)
 Q-Chem 5.4.0 for Intel X86 EM64T Linux

User input:
--------------------------------------------------------------
$molecule
0 1
 C        0.000000    0.000000   -0.49687143
 H        0.000000    0.000000   -1.56687143
 N        0.000000    0.000000    0.64972857
$end

$rem
JOBTYPE=SP
input_bohr = false
method = B3LYP
basis = 3-21g
neo = true
neo_epc = epc19
sym_ignore = 1
scf_convergence 11
max_scf_cycles 100
SCF_ALGORITHM diis
xc_grid = 000099000302
$end

$neo_basis
H    2
 S   1   1.00
     31.997      1.000000
 S   1   1.00
     16.010      1.000000
 S   1   1.00
     8.734      1.000000
 S   1   1.00
     1.957       1.000000
 P   1   1.00
     24.028      1.000000
 P   1   1.00
     13.795      1.000000
 P   1   1.00
     9.438       1.000000
 D   1   1.00
     19.016      1.000000
 D   1   1.00
     10.524       1.000000
****
$end
--------------------------------------------------------------

             Standard Nuclear Orientation (Angstroms)
    I     Atom           X                Y                Z
 ----------------------------------------------------------------
    1      C       0.0000000000     0.0000000000    -0.4968714300
    2      H       0.0000000000     0.0000000000    -1.5668714300
    3      N       0.0000000000     0.0000000000     0.6497285700
 ----------------------------------------------------------------

   12     -92.9071141282      8.03e-13  Convergence criterion met
 Total energy in the final basis set =      -92.9071141282
    3      18.4488689412      1.69e-14  Convergence criterion met
   11     -92.8691628950      1.84e-12  Convergence criterion met
   24     -92.8970181486      6.72e-09  Convergence criterion met
   10     -92.8972486407      7.13e-12  Convergence criterion met
   12     -92.8972771065      5.46e-08  Convergence criterion met
   10     -92.8972822022      4.06e-12  Convergence criterion met
   11     -92.8972833058      7.47e-08  Convergence criterion met
   10     -92.8972835591      1.34e-12  Convergence criterion met
   10     -92.8972836175      9.08e-08  Convergence criterion met
    9     -92.8972836311      2.64e-12  Convergence criterion met
    8     -92.8972836343      8.71e-08  Convergence criterion met
    9     -92.8972836351      6.21e-13  Convergence criterion met

 Nuclear Orbital Energies (a.u.)
 ---------------------------------------
  -- Occupied --
   -0.8814

 Total job time:  44.96s(wall), 44.13s(cpu)
        *  Thank you very much for using Q-Chem.  Have a nice day.  *
